t 0.013003 /NodeList/8/DeviceList/0/$ns3::WifiNetDevice/Phy/State/Tx OfdmRate6Mbps ns3::WifiMacHeader (QOSDATA ) ns3::LlcSnapHeader (type 0x800) ns3::Ipv4Header (tos 0x0 DSCP Default ECN Not-ECT ttl 1 id 0 protocol 17 offset (bytes) 0 flags [none] length: 48 192.168.0.9 > 192.168.0.255) ns3::UdpHeader (length: 28 654 > 654) ns3::aodv::TypeHeader (RREP) ns3::aodv::RrepHeader (destination: ipv4 192.168.0.9 sequence number 0 source ipv4 192.168.0.9 lifetime 2000 acknowledgment required flag 0) 
t 0.015001 /NodeList/18/DeviceList/0/$ns3::WifiNetDevice/Phy/State/Tx OfdmRate6Mbps ns3::WifiMacHeader (QOSDATA ) ns3::LlcSnapHeader (type 0x800) ns3::Ipv4Header (tos 0x0 DSCP Default ECN Not-ECT ttl 1 id 0 protocol 17 offset (bytes) 0 flags [none] length: 48 192.168.0.19 > 192.168.0.255) ns3::UdpHeader (length: 28 654 > 654) ns3::aodv::TypeHeader (RREP) ns3::aodv::RrepHeader (destination: ipv4 192.168.0.19 sequence number 0 source ipv4 192.168.0.19 lifetime 2000 acknowledgment required flag 0) 
t 0.020005 /NodeList/5/DeviceList/0/$ns3::WifiNetDevice/Phy/State/Tx OfdmRate6Mbps ns3::WifiMacHeader (QOSDATA ) ns3::LlcSnapHeader (type 0x800) ns3::Ipv4Header (tos 0x0 DSCP Default ECN Not-ECT ttl 1 id 0 protocol 17 offset (bytes) 0 flags [none] length: 48 192.168.0.6 > 192.168.0.255) ns3::UdpHeader (length: 28 654 > 654) ns3::aodv::TypeHeader (RREP) ns3::aodv::RrepHeader (destination: ipv4 192.168.0.6 sequence number 0 source ipv4 192.168.0.6 lifetime 2000 acknowledgment required flag 0) 
t 0.027007 /NodeList/11/DeviceList/0/$ns3::WifiNetDevice/Phy/State/Tx OfdmRate6Mbps ns3::WifiMacHeader (QOSDATA ) ns3::LlcSnapHeader (type 0x800) ns3::Ipv4Header (tos 0x0 DSCP Default ECN Not-ECT ttl 1 id 0 protocol 17 offset (bytes) 0 flags [none] length: 48 192.168.0.12 > 192.168.0.255) ns3::UdpHeader (length: 28 654 > 654) ns3::aodv::TypeHeader (RREP) ns3::aodv::RrepHeader (destination: ipv4 192.168.0.12 sequence number 0 source ipv4 192.168.0.12 lifetime 2000 acknowledgment required flag 0) 
t 0.028006 /NodeList/12/DeviceList/0/$ns3::WifiNetDevice/Phy/State/Tx OfdmRate6Mbps ns3::WifiMacHeader (QOSDATA ) ns3::LlcSnapHeader (type 0x800) ns3::Ipv4Header (tos 0x0 DSCP Default ECN Not-ECT ttl 1 id 0 protocol 17 offset (bytes) 0 flags [none] length: 48 192.168.0.13 > 192.168.0.255) ns3::UdpHeader (length: 28 654 > 654) ns3::aodv::TypeHeader (RREP) ns3::aodv::RrepHeader (destination: ipv4 192.168.0.13 sequence number 0 source ipv4 192.168.0.13 lifetime 2000 acknowledgment required flag 0) 
t 0.034009 /NodeList/10/DeviceList/0/$ns3::WifiNetDevice/Phy/State/Tx OfdmRate6Mbps ns3::WifiMacHeader (QOSDATA ) ns3::LlcSnapHeader (type 0x800) ns3::Ipv4Header (tos 0x0 DSCP Default ECN Not-ECT ttl 1 id 0 protocol 17 offset (bytes) 0 flags [none] length: 48 192.168.0.11 > 192.168.0.255) ns3::UdpHeader (length: 28 654 > 654) ns3::aodv::TypeHeader (RREP) ns3::aodv::RrepHeader (destination: ipv4 192.168.0.11 sequence number 0 source ipv4 192.168.0.11 lifetime 2000 acknowledgment required flag 0) 
t 0.037006 /NodeList/15/DeviceList/0/$ns3::WifiNetDevice/Phy/State/Tx OfdmRate6Mbps ns3::WifiMacHeader (QOSDATA ) ns3::LlcSnapHeader (type 0x800) ns3::Ipv4Header (tos 0x0 DSCP Default ECN Not-ECT ttl 1 id 0 protocol 17 offset (bytes) 0 flags [none] length: 48 192.168.0.16 > 192.168.0.255) ns3::UdpHeader (length: 28 654 > 654) ns3::aodv::TypeHeader (RREP) ns3::aodv::RrepHeader (destination: ipv4 192.168.0.16 sequence number 0 source ipv4 192.168.0.16 lifetime 2000 acknowledgment required flag 0) 
t 0.043009 /NodeList/2/DeviceList/0/$ns3::WifiNetDevice/Phy/State/Tx OfdmRate6Mbps ns3::WifiMacHeader (QOSDATA ) ns3::LlcSnapHeader (type 0x800) ns3::Ipv4Header (tos 0x0 DSCP Default ECN Not-ECT ttl 1 id 0 protocol 17 offset (bytes) 0 flags [none] length: 48 192.168.0.3 > 192.168.0.255) ns3::UdpHeader (length: 28 654 > 654) ns3::aodv::TypeHeader (RREP) ns3::aodv::RrepHeader (destination: ipv4 192.168.0.3 sequence number 0 source ipv4 192.168.0.3 lifetime 2000 acknowledgment required flag 0) 
t 0.045007 /NodeList/14/DeviceList/0/$ns3::WifiNetDevice/Phy/State/Tx OfdmRate6Mbps ns3::WifiMacHeader (QOSDATA ) ns3::LlcSnapHeader (type 0x800) ns3::Ipv4Header (tos 0x0 DSCP Default ECN Not-ECT ttl 1 id 0 protocol 17 offset (bytes) 0 flags [none] length: 48 192.168.0.15 > 192.168.0.255) ns3::UdpHeader (length: 28 654 > 654) ns3::aodv::TypeHeader (RREP) ns3::aodv::RrepHeader (destination: ipv4 192.168.0.15 sequence number 0 source ipv4 192.168.0.15 lifetime 2000 acknowledgment required flag 0) 
t 0.047005 /NodeList/4/DeviceList/0/$ns3::WifiNetDevice/Phy/State/Tx OfdmRate6Mbps ns3::WifiMacHeader (QOSDATA ) ns3::LlcSnapHeader (type 0x800) ns3::Ipv4Header (tos 0x0 DSCP Default ECN Not-ECT ttl 1 id 0 protocol 17 offset (bytes) 0 flags [none] length: 48 192.168.0.5 > 192.168.0.255) ns3::UdpHeader (length: 28 654 > 654) ns3::aodv::TypeHeader (RREP) ns3::aodv::RrepHeader (destination: ipv4 192.168.0.5 sequence number 0 source ipv4 192.168.0.5 lifetime 2000 acknowledgment required flag 0) 
t 0.052009 /NodeList/17/DeviceList/0/$ns3::WifiNetDevice/Phy/State/Tx OfdmRate6Mbps ns3::WifiMacHeader (QOSDATA ) ns3::LlcSnapHeader (type 0x800) ns3::Ipv4Header (tos 0x0 DSCP Default ECN Not-ECT ttl 1 id 0 protocol 17 offset (bytes) 0 flags [none] length: 48 192.168.0.18 > 192.168.0.255) ns3::UdpHeader (length: 28 654 > 654) ns3::aodv::TypeHeader (RREP) ns3::aodv::RrepHeader (destination: ipv4 192.168.0.18 sequence number 0 source ipv4 192.168.0.18 lifetime 2000 acknowledgment required flag 0) 
t 0.052009 /NodeList/13/DeviceList/0/$ns3::WifiNetDevice/Phy/State/Tx OfdmRate6Mbps ns3::WifiMacHeader (QOSDATA ) ns3::LlcSnapHeader (type 0x800) ns3::Ipv4Header (tos 0x0 DSCP Default ECN Not-ECT ttl 1 id 0 protocol 17 offset (bytes) 0 flags [none] length: 48 192.168.0.14 > 192.168.0.255) ns3::UdpHeader (length: 28 654 > 654) ns3::aodv::TypeHeader (RREP) ns3::aodv::RrepHeader (destination: ipv4 192.168.0.14 sequence number 0 source ipv4 192.168.0.14 lifetime 2000 acknowledgment required flag 0) 
t 0.065005 /NodeList/9/DeviceList/0/$ns3::WifiNetDevice/Phy/State/Tx OfdmRate6Mbps ns3::WifiMacHeader (QOSDATA ) ns3::LlcSnapHeader (type 0x800) ns3::Ipv4Header (tos 0x0 DSCP Default ECN Not-ECT ttl 1 id 0 protocol 17 offset (bytes) 0 flags [none] length: 48 192.168.0.10 > 192.168.0.255) ns3::UdpHeader (length: 28 654 > 654) ns3::aodv::TypeHeader (RREP) ns3::aodv::RrepHeader (destination: ipv4 192.168.0.10 sequence number 0 source ipv4 192.168.0.10 lifetime 2000 acknowledgment required flag 0) 
t 0.072007 /NodeList/19/DeviceList/0/$ns3::WifiNetDevice/Phy/State/Tx OfdmRate6Mbps ns3::WifiMacHeader (QOSDATA ) ns3::LlcSnapHeader (type 0x800) ns3::Ipv4Header (tos 0x0 DSCP Default ECN Not-ECT ttl 1 id 0 protocol 17 offset (bytes) 0 flags [none] length: 48 192.168.0.20 > 192.168.0.255) ns3::UdpHeader (length: 28 654 > 654) ns3::aodv::TypeHeader (RREP) ns3::aodv::RrepHeader (destination: ipv4 192.168.0.20 sequence number 0 source ipv4 192.168.0.20 lifetime 2000 acknowledgment required flag 0) 
t 0.081007 /NodeList/7/DeviceList/0/$ns3::WifiNetDevice/Phy/State/Tx OfdmRate6Mbps ns3::WifiMacHeader (QOSDATA ) ns3::LlcSnapHeader (type 0x800) ns3::Ipv4Header (tos 0x0 DSCP Default ECN Not-ECT ttl 1 id 0 protocol 17 offset (bytes) 0 flags [none] length: 48 192.168.0.8 > 192.168.0.255) ns3::UdpHeader (length: 28 654 > 654) ns3::aodv::TypeHeader (RREP) ns3::aodv::RrepHeader (destination: ipv4 192.168.0.8 sequence number 0 source ipv4 192.168.0.8 lifetime 2000 acknowledgment required flag 0) 
t 0.088009 /NodeList/6/DeviceList/0/$ns3::WifiNetDevice/Phy/State/Tx OfdmRate6Mbps ns3::WifiMacHeader (QOSDATA ) ns3::LlcSnapHeader (type 0x800) ns3::Ipv4Header (tos 0x0 DSCP Default ECN Not-ECT ttl 1 id 0 protocol 17 offset (bytes) 0 flags [none] length: 48 192.168.0.7 > 192.168.0.255) ns3::UdpHeader (length: 28 654 > 654) ns3::aodv::TypeHeader (RREP) ns3::aodv::RrepHeader (destination: ipv4 192.168.0.7 sequence number 0 source ipv4 192.168.0.7 lifetime 2000 acknowledgment required flag 0) 
t 0.088009 /NodeList/16/DeviceList/0/$ns3::WifiNetDevice/Phy/State/Tx OfdmRate6Mbps ns3::WifiMacHeader (QOSDATA ) ns3::LlcSnapHeader (type 0x800) ns3::Ipv4Header (tos 0x0 DSCP Default ECN Not-ECT ttl 1 id 0 protocol 17 offset (bytes) 0 flags [none] length: 48 192.168.0.17 > 192.168.0.255) ns3::UdpHeader (length: 28 654 > 654) ns3::aodv::TypeHeader (RREP) ns3::aodv::RrepHeader (destination: ipv4 192.168.0.17 sequence number 0 source ipv4 192.168.0.17 lifetime 2000 acknowledgment required flag 0) 
t 0.091006 /NodeList/0/DeviceList/0/$ns3::WifiNetDevice/Phy/State/Tx OfdmRate6Mbps ns3::WifiMacHeader (QOSDATA ) ns3::LlcSnapHeader (type 0x800) ns3::Ipv4Header (tos 0x0 DSCP Default ECN Not-ECT ttl 1 id 0 protocol 17 offset (bytes) 0 flags [none] length: 48 192.168.0.1 > 192.168.0.255) ns3::UdpHeader (length: 28 654 > 654) ns3::aodv::TypeHeader (RREP) ns3::aodv::RrepHeader (destination: ipv4 192.168.0.1 sequence number 0 source ipv4 192.168.0.1 lifetime 2000 acknowledgment required flag 0) 
t 0.095002 /NodeList/3/DeviceList/0/$ns3::WifiNetDevice/Phy/State/Tx OfdmRate6Mbps ns3::WifiMacHeader (QOSDATA ) ns3::LlcSnapHeader (type 0x800) ns3::Ipv4Header (tos 0x0 DSCP Default ECN Not-ECT ttl 1 id 0 protocol 17 offset (bytes) 0 flags [none] length: 48 192.168.0.4 > 192.168.0.255) ns3::UdpHeader (length: 28 654 > 654) ns3::aodv::TypeHeader (RREP) ns3::aodv::RrepHeader (destination: ipv4 192.168.0.4 sequence number 0 source ipv4 192.168.0.4 lifetime 2000 acknowledgment required flag 0) 
t 0.101005 /NodeList/1/DeviceList/0/$ns3::WifiNetDevice/Phy/State/Tx OfdmRate6Mbps ns3::WifiMacHeader (QOSDATA ) ns3::LlcSnapHeader (type 0x800) ns3::Ipv4Header (tos 0x0 DSCP Default ECN Not-ECT ttl 1 id 0 protocol 17 offset (bytes) 0 flags [none] length: 48 192.168.0.2 > 192.168.0.255) ns3::UdpHeader (length: 28 654 > 654) ns3::aodv::TypeHeader (RREP) ns3::aodv::RrepHeader (destination: ipv4 192.168.0.2 sequence number 0 source ipv4 192.168.0.2 lifetime 2000 acknowledgment required flag 0) 
t 1.01801 /NodeList/8/DeviceList/0/$ns3::WifiNetDevice/Phy/State/Tx OfdmRate6Mbps ns3::WifiMacHeader (QOSDATA ) ns3::LlcSnapHeader (type 0x800) ns3::Ipv4Header (tos 0x0 DSCP Default ECN Not-ECT ttl 1 id 1 protocol 17 offset (bytes) 0 flags [none] length: 48 192.168.0.9 > 192.168.0.255) ns3::UdpHeader (length: 28 654 > 654) ns3::aodv::TypeHeader (RREP) ns3::aodv::RrepHeader (destination: ipv4 192.168.0.9 sequence number 0 source ipv4 192.168.0.9 lifetime 2000 acknowledgment required flag 0) 
t 1.01901 /NodeList/5/DeviceList/0/$ns3::WifiNetDevice/Phy/State/Tx OfdmRate6Mbps ns3::WifiMacHeader (QOSDATA ) ns3::LlcSnapHeader (type 0x800) ns3::Ipv4Header (tos 0x0 DSCP Default ECN Not-ECT ttl 1 id 1 protocol 17 offset (bytes) 0 flags [none] length: 48 192.168.0.6 > 192.168.0.255) ns3::UdpHeader (length: 28 654 > 654) ns3::aodv::TypeHeader (RREP) ns3::aodv::RrepHeader (destination: ipv4 192.168.0.6 sequence number 0 source ipv4 192.168.0.6 lifetime 2000 acknowledgment required flag 0) 
t 1.02101 /NodeList/18/DeviceList/0/$ns3::WifiNetDevice/Phy/State/Tx OfdmRate6Mbps ns3::WifiMacHeader (QOSDATA ) ns3::LlcSnapHeader (type 0x800) ns3::Ipv4Header (tos 0x0 DSCP Default ECN Not-ECT ttl 1 id 1 protocol 17 offset (bytes) 0 flags [none] length: 48 192.168.0.19 > 192.168.0.255) ns3::UdpHeader (length: 28 654 > 654) ns3::aodv::TypeHeader (RREP) ns3::aodv::RrepHeader (destination: ipv4 192.168.0.19 sequence number 0 source ipv4 192.168.0.19 lifetime 2000 acknowledgment required flag 0) 
t 1.026 /NodeList/12/DeviceList/0/$ns3::WifiNetDevice/Phy/State/Tx OfdmRate6Mbps ns3::WifiMacHeader (QOSDATA ) ns3::LlcSnapHeader (type 0x800) ns3::Ipv4Header (tos 0x0 DSCP Default ECN Not-ECT ttl 1 id 1 protocol 17 offset (bytes) 0 flags [none] length: 48 192.168.0.13 > 192.168.0.255) ns3::UdpHeader (length: 28 654 > 654) ns3::aodv::TypeHeader (RREP) ns3::aodv::RrepHeader (destination: ipv4 192.168.0.13 sequence number 0 source ipv4 192.168.0.13 lifetime 2000 acknowledgment required flag 0) 
t 1.02701 /NodeList/11/DeviceList/0/$ns3::WifiNetDevice/Phy/State/Tx OfdmRate6Mbps ns3::WifiMacHeader (QOSDATA ) ns3::LlcSnapHeader (type 0x800) ns3::Ipv4Header (tos 0x0 DSCP Default ECN Not-ECT ttl 1 id 1 protocol 17 offset (bytes) 0 flags [none] length: 48 192.168.0.12 > 192.168.0.255) ns3::UdpHeader (length: 28 654 > 654) ns3::aodv::TypeHeader (RREP) ns3::aodv::RrepHeader (destination: ipv4 192.168.0.12 sequence number 0 source ipv4 192.168.0.12 lifetime 2000 acknowledgment required flag 0) 
t 1.03001 /NodeList/10/DeviceList/0/$ns3::WifiNetDevice/Phy/State/Tx OfdmRate6Mbps ns3::WifiMacHeader (QOSDATA ) ns3::LlcSnapHeader (type 0x800) ns3::Ipv4Header (tos 0x0 DSCP Default ECN Not-ECT ttl 1 id 1 protocol 17 offset (bytes) 0 flags [none] length: 48 192.168.0.11 > 192.168.0.255) ns3::UdpHeader (length: 28 654 > 654) ns3::aodv::TypeHeader (RREP) ns3::aodv::RrepHeader (destination: ipv4 192.168.0.11 sequence number 0 source ipv4 192.168.0.11 lifetime 2000 acknowledgment required flag 0) 
t 1.041 /NodeList/15/DeviceList/0/$ns3::WifiNetDevice/Phy/State/Tx OfdmRate6Mbps ns3::WifiMacHeader (QOSDATA ) ns3::LlcSnapHeader (type 0x800) ns3::Ipv4Header (tos 0x0 DSCP Default ECN Not-ECT ttl 1 id 1 protocol 17 offset (bytes) 0 flags [none] length: 48 192.168.0.16 > 192.168.0.255) ns3::UdpHeader (length: 28 654 > 654) ns3::aodv::TypeHeader (RREP) ns3::aodv::RrepHeader (destination: ipv4 192.168.0.16 sequence number 0 source ipv4 192.168.0.16 lifetime 2000 acknowledgment required flag 0) 
t 1.042 /NodeList/14/DeviceList/0/$ns3::WifiNetDevice/Phy/State/Tx OfdmRate6Mbps ns3::WifiMacHeader (QOSDATA ) ns3::LlcSnapHeader (type 0x800) ns3::Ipv4Header (tos 0x0 DSCP Default ECN Not-ECT ttl 1 id 1 protocol 17 offset (bytes) 0 flags [none] length: 48 192.168.0.15 > 192.168.0.255) ns3::UdpHeader (length: 28 654 > 654) ns3::aodv::TypeHeader (RREP) ns3::aodv::RrepHeader (destination: ipv4 192.168.0.15 sequence number 0 source ipv4 192.168.0.15 lifetime 2000 acknowledgment required flag 0) 
t 1.04601 /NodeList/4/DeviceList/0/$ns3::WifiNetDevice/Phy/State/Tx OfdmRate6Mbps ns3::WifiMacHeader (QOSDATA ) ns3::LlcSnapHeader (type 0x800) ns3::Ipv4Header (tos 0x0 DSCP Default ECN Not-ECT ttl 1 id 1 protocol 17 offset (bytes) 0 flags [none] length: 48 192.168.0.5 > 192.168.0.255) ns3::UdpHeader (length: 28 654 > 654) ns3::aodv::TypeHeader (RREP) ns3::aodv::RrepHeader (destination: ipv4 192.168.0.5 sequence number 0 source ipv4 192.168.0.5 lifetime 2000 acknowledgment required flag 0) 
t 1.049 /NodeList/17/DeviceList/0/$ns3::WifiNetDevice/Phy/State/Tx OfdmRate6Mbps ns3::WifiMacHeader (QOSDATA ) ns3::LlcSnapHeader (type 0x800) ns3::Ipv4Header (tos 0x0 DSCP Default ECN Not-ECT ttl 1 id 1 protocol 17 offset (bytes) 0 flags [none] length: 48 192.168.0.18 > 192.168.0.255) ns3::UdpHeader (length: 28 654 > 654) ns3::aodv::TypeHeader (RREP) ns3::aodv::RrepHeader (destination: ipv4 192.168.0.18 sequence number 0 source ipv4 192.168.0.18 lifetime 2000 acknowledgment required flag 0) 
t 1.052 /NodeList/2/DeviceList/0/$ns3::WifiNetDevice/Phy/State/Tx OfdmRate6Mbps ns3::WifiMacHeader (QOSDATA ) ns3::LlcSnapHeader (type 0x800) ns3::Ipv4Header (tos 0x0 DSCP Default ECN Not-ECT ttl 1 id 1 protocol 17 offset (bytes) 0 flags [none] length: 48 192.168.0.3 > 192.168.0.255) ns3::UdpHeader (length: 28 654 > 654) ns3::aodv::TypeHeader (RREP) ns3::aodv::RrepHeader (destination: ipv4 192.168.0.3 sequence number 0 source ipv4 192.168.0.3 lifetime 2000 acknowledgment required flag 0) 
t 1.05701 /NodeList/13/DeviceList/0/$ns3::WifiNetDevice/Phy/State/Tx OfdmRate6Mbps ns3::WifiMacHeader (QOSDATA ) ns3::LlcSnapHeader (type 0x800) ns3::Ipv4Header (tos 0x0 DSCP Default ECN Not-ECT ttl 1 id 1 protocol 17 offset (bytes) 0 flags [none] length: 48 192.168.0.14 > 192.168.0.255) ns3::UdpHeader (length: 28 654 > 654) ns3::aodv::TypeHeader (RREP) ns3::aodv::RrepHeader (destination: ipv4 192.168.0.14 sequence number 0 source ipv4 192.168.0.14 lifetime 2000 acknowledgment required flag 0) 
t 1.068 /NodeList/9/DeviceList/0/$ns3::WifiNetDevice/Phy/State/Tx OfdmRate6Mbps ns3::WifiMacHeader (QOSDATA ) ns3::LlcSnapHeader (type 0x800) ns3::Ipv4Header (tos 0x0 DSCP Default ECN Not-ECT ttl 1 id 1 protocol 17 offset (bytes) 0 flags [none] length: 48 192.168.0.10 > 192.168.0.255) ns3::UdpHeader (length: 28 654 > 654) ns3::aodv::TypeHeader (RREP) ns3::aodv::RrepHeader (destination: ipv4 192.168.0.10 sequence number 0 source ipv4 192.168.0.10 lifetime 2000 acknowledgment required flag 0) 
t 1.07201 /NodeList/19/DeviceList/0/$ns3::WifiNetDevice/Phy/State/Tx OfdmRate6Mbps ns3::WifiMacHeader (QOSDATA ) ns3::LlcSnapHeader (type 0x800) ns3::Ipv4Header (tos 0x0 DSCP Default ECN Not-ECT ttl 1 id 1 protocol 17 offset (bytes) 0 flags [none] length: 48 192.168.0.20 > 192.168.0.255) ns3::UdpHeader (length: 28 654 > 654) ns3::aodv::TypeHeader (RREP) ns3::aodv::RrepHeader (destination: ipv4 192.168.0.20 sequence number 0 source ipv4 192.168.0.20 lifetime 2000 acknowledgment required flag 0) 
t 1.085 /NodeList/7/DeviceList/0/$ns3::WifiNetDevice/Phy/State/Tx OfdmRate6Mbps ns3::WifiMacHeader (QOSDATA ) ns3::LlcSnapHeader (type 0x800) ns3::Ipv4Header (tos 0x0 DSCP Default ECN Not-ECT ttl 1 id 1 protocol 17 offset (bytes) 0 flags [none] length: 48 192.168.0.8 > 192.168.0.255) ns3::UdpHeader (length: 28 654 > 654) ns3::aodv::TypeHeader (RREP) ns3::aodv::RrepHeader (destination: ipv4 192.168.0.8 sequence number 0 source ipv4 192.168.0.8 lifetime 2000 acknowledgment required flag 0) 
t 1.086 /NodeList/16/DeviceList/0/$ns3::WifiNetDevice/Phy/State/Tx OfdmRate6Mbps ns3::WifiMacHeader (QOSDATA ) ns3::LlcSnapHeader (type 0x800) ns3::Ipv4Header (tos 0x0 DSCP Default ECN Not-ECT ttl 1 id 1 protocol 17 offset (bytes) 0 flags [none] length: 48 192.168.0.17 > 192.168.0.255) ns3::UdpHeader (length: 28 654 > 654) ns3::aodv::TypeHeader (RREP) ns3::aodv::RrepHeader (destination: ipv4 192.168.0.17 sequence number 0 source ipv4 192.168.0.17 lifetime 2000 acknowledgment required flag 0) 
t 1.09301 /NodeList/6/DeviceList/0/$ns3::WifiNetDevice/Phy/State/Tx OfdmRate6Mbps ns3::WifiMacHeader (QOSDATA ) ns3::LlcSnapHeader (type 0x800) ns3::Ipv4Header (tos 0x0 DSCP Default ECN Not-ECT ttl 1 id 1 protocol 17 offset (bytes) 0 flags [none] length: 48 192.168.0.7 > 192.168.0.255) ns3::UdpHeader (length: 28 654 > 654) ns3::aodv::TypeHeader (RREP) ns3::aodv::RrepHeader (destination: ipv4 192.168.0.7 sequence number 0 source ipv4 192.168.0.7 lifetime 2000 acknowledgment required flag 0) 
t 1.09301 /NodeList/3/DeviceList/0/$ns3::WifiNetDevice/Phy/State/Tx OfdmRate6Mbps ns3::WifiMacHeader (QOSDATA ) ns3::LlcSnapHeader (type 0x800) ns3::Ipv4Header (tos 0x0 DSCP Default ECN Not-ECT ttl 1 id 1 protocol 17 offset (bytes) 0 flags [none] length: 48 192.168.0.4 > 192.168.0.255) ns3::UdpHeader (length: 28 654 > 654) ns3::aodv::TypeHeader (RREP) ns3::aodv::RrepHeader (destination: ipv4 192.168.0.4 sequence number 0 source ipv4 192.168.0.4 lifetime 2000 acknowledgment required flag 0) 
t 1.098 /NodeList/0/DeviceList/0/$ns3::WifiNetDevice/Phy/State/Tx OfdmRate6Mbps ns3::WifiMacHeader (QOSDATA ) ns3::LlcSnapHeader (type 0x800) ns3::Ipv4Header (tos 0x0 DSCP Default ECN Not-ECT ttl 1 id 1 protocol 17 offset (bytes) 0 flags [none] length: 48 192.168.0.1 > 192.168.0.255) ns3::UdpHeader (length: 28 654 > 654) ns3::aodv::TypeHeader (RREP) ns3::aodv::RrepHeader (destination: ipv4 192.168.0.1 sequence number 0 source ipv4 192.168.0.1 lifetime 2000 acknowledgment required flag 0) 
t 1.098 /NodeList/1/DeviceList/0/$ns3::WifiNetDevice/Phy/State/Tx OfdmRate6Mbps ns3::WifiMacHeader (QOSDATA ) ns3::LlcSnapHeader (type 0x800) ns3::Ipv4Header (tos 0x0 DSCP Default ECN Not-ECT ttl 1 id 1 protocol 17 offset (bytes) 0 flags [none] length: 48 192.168.0.2 > 192.168.0.255) ns3::UdpHeader (length: 28 654 > 654) ns3::aodv::TypeHeader (RREP) ns3::aodv::RrepHeader (destination: ipv4 192.168.0.2 sequence number 0 source ipv4 192.168.0.2 lifetime 2000 acknowledgment required flag 0) 
t 2.009 /NodeList/1/DeviceList/0/$ns3::WifiNetDevice/Phy/State/Tx OfdmRate6Mbps ns3::WifiMacHeader (QOSDATA ) ns3::LlcSnapHeader (type 0x800) ns3::Ipv4Header (tos 0x0 DSCP Default ECN Not-ECT ttl 1 id 2 protocol 17 offset (bytes) 0 flags [none] length: 52 192.168.0.2 > 192.168.0.255) ns3::UdpHeader (length: 32 654 > 654) ns3::aodv::TypeHeader (RREQ) ns3::aodv::RreqHeader (RREQ ID 1 destination: ipv4 192.168.0.1 sequence number 0 source: ipv4 192.168.0.2 sequence number 1 flags: Gratuitous RREP 1 Destination only 0 Unknown sequence number 1) 
t 2.01301 /NodeList/8/DeviceList/0/$ns3::WifiNetDevice/Phy/State/Tx OfdmRate6Mbps ns3::WifiMacHeader (QOSDATA ) ns3::LlcSnapHeader (type 0x800) ns3::Ipv4Header (tos 0x0 DSCP Default ECN Not-ECT ttl 1 id 2 protocol 17 offset (bytes) 0 flags [none] length: 48 192.168.0.9 > 192.168.0.255) ns3::UdpHeader (length: 28 654 > 654) ns3::aodv::TypeHeader (RREP) ns3::aodv::RrepHeader (destination: ipv4 192.168.0.9 sequence number 0 source ipv4 192.168.0.9 lifetime 2000 acknowledgment required flag 0) 
t 2.018 /NodeList/18/DeviceList/0/$ns3::WifiNetDevice/Phy/State/Tx OfdmRate6Mbps ns3::WifiMacHeader (QOSDATA ) ns3::LlcSnapHeader (type 0x800) ns3::Ipv4Header (tos 0x0 DSCP Default ECN Not-ECT ttl 1 id 2 protocol 17 offset (bytes) 0 flags [none] length: 48 192.168.0.19 > 192.168.0.255) ns3::UdpHeader (length: 28 654 > 654) ns3::aodv::TypeHeader (RREP) ns3::aodv::RrepHeader (destination: ipv4 192.168.0.19 sequence number 0 source ipv4 192.168.0.19 lifetime 2000 acknowledgment required flag 0) 
t 2.019 /NodeList/5/DeviceList/0/$ns3::WifiNetDevice/Phy/State/Tx OfdmRate6Mbps ns3::WifiMacHeader (QOSDATA ) ns3::LlcSnapHeader (type 0x800) ns3::Ipv4Header (tos 0x0 DSCP Default ECN Not-ECT ttl 1 id 2 protocol 17 offset (bytes) 0 flags [none] length: 48 192.168.0.6 > 192.168.0.255) ns3::UdpHeader (length: 28 654 > 654) ns3::aodv::TypeHeader (RREP) ns3::aodv::RrepHeader (destination: ipv4 192.168.0.6 sequence number 0 source ipv4 192.168.0.6 lifetime 2000 acknowledgment required flag 0) 
t 2.02901 /NodeList/11/DeviceList/0/$ns3::WifiNetDevice/Phy/State/Tx OfdmRate6Mbps ns3::WifiMacHeader (QOSDATA ) ns3::LlcSnapHeader (type 0x800) ns3::Ipv4Header (tos 0x0 DSCP Default ECN Not-ECT ttl 1 id 2 protocol 17 offset (bytes) 0 flags [none] length: 48 192.168.0.12 > 192.168.0.255) ns3::UdpHeader (length: 28 654 > 654) ns3::aodv::TypeHeader (RREP) ns3::aodv::RrepHeader (destination: ipv4 192.168.0.12 sequence number 0 source ipv4 192.168.0.12 lifetime 2000 acknowledgment required flag 0) 
t 2.03001 /NodeList/12/DeviceList/0/$ns3::WifiNetDevice/Phy/State/Tx OfdmRate6Mbps ns3::WifiMacHeader (QOSDATA ) ns3::LlcSnapHeader (type 0x800) ns3::Ipv4Header (tos 0x0 DSCP Default ECN Not-ECT ttl 1 id 2 protocol 17 offset (bytes) 0 flags [none] length: 48 192.168.0.13 > 192.168.0.255) ns3::UdpHeader (length: 28 654 > 654) ns3::aodv::TypeHeader (RREP) ns3::aodv::RrepHeader (destination: ipv4 192.168.0.13 sequence number 0 source ipv4 192.168.0.13 lifetime 2000 acknowledgment required flag 0) 
t 2.036 /NodeList/10/DeviceList/0/$ns3::WifiNetDevice/Phy/State/Tx OfdmRate6Mbps ns3::WifiMacHeader (QOSDATA ) ns3::LlcSnapHeader (type 0x800) ns3::Ipv4Header (tos 0x0 DSCP Default ECN Not-ECT ttl 1 id 2 protocol 17 offset (bytes) 0 flags [none] length: 48 192.168.0.11 > 192.168.0.255) ns3::UdpHeader (length: 28 654 > 654) ns3::aodv::TypeHeader (RREP) ns3::aodv::RrepHeader (destination: ipv4 192.168.0.11 sequence number 0 source ipv4 192.168.0.11 lifetime 2000 acknowledgment required flag 0) 
t 2.036 /NodeList/15/DeviceList/0/$ns3::WifiNetDevice/Phy/State/Tx OfdmRate6Mbps ns3::WifiMacHeader (QOSDATA ) ns3::LlcSnapHeader (type 0x800) ns3::Ipv4Header (tos 0x0 DSCP Default ECN Not-ECT ttl 1 id 2 protocol 17 offset (bytes) 0 flags [none] length: 48 192.168.0.16 > 192.168.0.255) ns3::UdpHeader (length: 28 654 > 654) ns3::aodv::TypeHeader (RREP) ns3::aodv::RrepHeader (destination: ipv4 192.168.0.16 sequence number 0 source ipv4 192.168.0.16 lifetime 2000 acknowledgment required flag 0) 
t 2.043 /NodeList/14/DeviceList/0/$ns3::WifiNetDevice/Phy/State/Tx OfdmRate6Mbps ns3::WifiMacHeader (QOSDATA ) ns3::LlcSnapHeader (type 0x800) ns3::Ipv4Header (tos 0x0 DSCP Default ECN Not-ECT ttl 1 id 2 protocol 17 offset (bytes) 0 flags [none] length: 48 192.168.0.15 > 192.168.0.255) ns3::UdpHeader (length: 28 654 > 654) ns3::aodv::TypeHeader (RREP) ns3::aodv::RrepHeader (destination: ipv4 192.168.0.15 sequence number 0 source ipv4 192.168.0.15 lifetime 2000 acknowledgment required flag 0) 
t 2.04801 /NodeList/4/DeviceList/0/$ns3::WifiNetDevice/Phy/State/Tx OfdmRate6Mbps ns3::WifiMacHeader (QOSDATA ) ns3::LlcSnapHeader (type 0x800) ns3::Ipv4Header (tos 0x0 DSCP Default ECN Not-ECT ttl 1 id 2 protocol 17 offset (bytes) 0 flags [none] length: 48 192.168.0.5 > 192.168.0.255) ns3::UdpHeader (length: 28 654 > 654) ns3::aodv::TypeHeader (RREP) ns3::aodv::RrepHeader (destination: ipv4 192.168.0.5 sequence number 0 source ipv4 192.168.0.5 lifetime 2000 acknowledgment required flag 0) 
t 2.04901 /NodeList/2/DeviceList/0/$ns3::WifiNetDevice/Phy/State/Tx OfdmRate6Mbps ns3::WifiMacHeader (QOSDATA ) ns3::LlcSnapHeader (type 0x800) ns3::Ipv4Header (tos 0x0 DSCP Default ECN Not-ECT ttl 1 id 2 protocol 17 offset (bytes) 0 flags [none] length: 48 192.168.0.3 > 192.168.0.255) ns3::UdpHeader (length: 28 654 > 654) ns3::aodv::TypeHeader (RREP) ns3::aodv::RrepHeader (destination: ipv4 192.168.0.3 sequence number 0 source ipv4 192.168.0.3 lifetime 2000 acknowledgment required flag 0) 
t 2.052 /NodeList/17/DeviceList/0/$ns3::WifiNetDevice/Phy/State/Tx OfdmRate6Mbps ns3::WifiMacHeader (QOSDATA ) ns3::LlcSnapHeader (type 0x800) ns3::Ipv4Header (tos 0x0 DSCP Default ECN Not-ECT ttl 1 id 2 protocol 17 offset (bytes) 0 flags [none] length: 48 192.168.0.18 > 192.168.0.255) ns3::UdpHeader (length: 28 654 > 654) ns3::aodv::TypeHeader (RREP) ns3::aodv::RrepHeader (destination: ipv4 192.168.0.18 sequence number 0 source ipv4 192.168.0.18 lifetime 2000 acknowledgment required flag 0) 
t 2.053 /NodeList/13/DeviceList/0/$ns3::WifiNetDevice/Phy/State/Tx OfdmRate6Mbps ns3::WifiMacHeader (QOSDATA ) ns3::LlcSnapHeader (type 0x800) ns3::Ipv4Header (tos 0x0 DSCP Default ECN Not-ECT ttl 1 id 2 protocol 17 offset (bytes) 0 flags [none] length: 48 192.168.0.14 > 192.168.0.255) ns3::UdpHeader (length: 28 654 > 654) ns3::aodv::TypeHeader (RREP) ns3::aodv::RrepHeader (destination: ipv4 192.168.0.14 sequence number 0 source ipv4 192.168.0.14 lifetime 2000 acknowledgment required flag 0) 
t 2.06801 /NodeList/19/DeviceList/0/$ns3::WifiNetDevice/Phy/State/Tx OfdmRate6Mbps ns3::WifiMacHeader (QOSDATA ) ns3::LlcSnapHeader (type 0x800) ns3::Ipv4Header (tos 0x0 DSCP Default ECN Not-ECT ttl 1 id 2 protocol 17 offset (bytes) 0 flags [none] length: 48 192.168.0.20 > 192.168.0.255) ns3::UdpHeader (length: 28 654 > 654) ns3::aodv::TypeHeader (RREP) ns3::aodv::RrepHeader (destination: ipv4 192.168.0.20 sequence number 0 source ipv4 192.168.0.20 lifetime 2000 acknowledgment required flag 0) 
t 2.06901 /NodeList/9/DeviceList/0/$ns3::WifiNetDevice/Phy/State/Tx OfdmRate6Mbps ns3::WifiMacHeader (QOSDATA ) ns3::LlcSnapHeader (type 0x800) ns3::Ipv4Header (tos 0x0 DSCP Default ECN Not-ECT ttl 1 id 2 protocol 17 offset (bytes) 0 flags [none] length: 48 192.168.0.10 > 192.168.0.255) ns3::UdpHeader (length: 28 654 > 654) ns3::aodv::TypeHeader (RREP) ns3::aodv::RrepHeader (destination: ipv4 192.168.0.10 sequence number 0 source ipv4 192.168.0.10 lifetime 2000 acknowledgment required flag 0) 
t 2.08301 /NodeList/7/DeviceList/0/$ns3::WifiNetDevice/Phy/State/Tx OfdmRate6Mbps ns3::WifiMacHeader (QOSDATA ) ns3::LlcSnapHeader (type 0x800) ns3::Ipv4Header (tos 0x0 DSCP Default ECN Not-ECT ttl 1 id 2 protocol 17 offset (bytes) 0 flags [none] length: 48 192.168.0.8 > 192.168.0.255) ns3::UdpHeader (length: 28 654 > 654) ns3::aodv::TypeHeader (RREP) ns3::aodv::RrepHeader (destination: ipv4 192.168.0.8 sequence number 0 source ipv4 192.168.0.8 lifetime 2000 acknowledgment required flag 0) 
t 2.087 /NodeList/3/DeviceList/0/$ns3::WifiNetDevice/Phy/State/Tx OfdmRate6Mbps ns3::WifiMacHeader (QOSDATA ) ns3::LlcSnapHeader (type 0x800) ns3::Ipv4Header (tos 0x0 DSCP Default ECN Not-ECT ttl 1 id 2 protocol 17 offset (bytes) 0 flags [none] length: 48 192.168.0.4 > 192.168.0.255) ns3::UdpHeader (length: 28 654 > 654) ns3::aodv::TypeHeader (RREP) ns3::aodv::RrepHeader (destination: ipv4 192.168.0.4 sequence number 0 source ipv4 192.168.0.4 lifetime 2000 acknowledgment required flag 0) 
t 2.09 /NodeList/6/DeviceList/0/$ns3::WifiNetDevice/Phy/State/Tx OfdmRate6Mbps ns3::WifiMacHeader (QOSDATA ) ns3::LlcSnapHeader (type 0x800) ns3::Ipv4Header (tos 0x0 DSCP Default ECN Not-ECT ttl 1 id 2 protocol 17 offset (bytes) 0 flags [none] length: 48 192.168.0.7 > 192.168.0.255) ns3::UdpHeader (length: 28 654 > 654) ns3::aodv::TypeHeader (RREP) ns3::aodv::RrepHeader (destination: ipv4 192.168.0.7 sequence number 0 source ipv4 192.168.0.7 lifetime 2000 acknowledgment required flag 0) 
t 2.091 /NodeList/16/DeviceList/0/$ns3::WifiNetDevice/Phy/State/Tx OfdmRate6Mbps ns3::WifiMacHeader (QOSDATA ) ns3::LlcSnapHeader (type 0x800) ns3::Ipv4Header (tos 0x0 DSCP Default ECN Not-ECT ttl 1 id 2 protocol 17 offset (bytes) 0 flags [none] length: 48 192.168.0.17 > 192.168.0.255) ns3::UdpHeader (length: 28 654 > 654) ns3::aodv::TypeHeader (RREP) ns3::aodv::RrepHeader (destination: ipv4 192.168.0.17 sequence number 0 source ipv4 192.168.0.17 lifetime 2000 acknowledgment required flag 0) 
t 2.096 /NodeList/0/DeviceList/0/$ns3::WifiNetDevice/Phy/State/Tx OfdmRate6Mbps ns3::WifiMacHeader (QOSDATA ) ns3::LlcSnapHeader (type 0x800) ns3::Ipv4Header (tos 0x0 DSCP Default ECN Not-ECT ttl 1 id 2 protocol 17 offset (bytes) 0 flags [none] length: 48 192.168.0.1 > 192.168.0.255) ns3::UdpHeader (length: 28 654 > 654) ns3::aodv::TypeHeader (RREP) ns3::aodv::RrepHeader (destination: ipv4 192.168.0.1 sequence number 0 source ipv4 192.168.0.1 lifetime 2000 acknowledgment required flag 0) 